ITEM: TIMESTEP
0
ITEM: NUMBER OF ATOMS
200
ITEM: BOX BOUNDS pp pp pp
0.0000000000000000e+00 2.5000000000000000e+01
0.0000000000000000e+00 2.5000000000000000e+01
0.0000000000000000e+00 2.5000000000000000e+01
ITEM: ATOMS type xs ys zs
1 0.239308 0.0449338 0.201964
2 0.155073 0.303571 0.122663
2 0.262109 0.259418 0.0440961
2 0.192074 0.190105 0.0936259
2 0.103836 0.176599 0.0910064
2 0.040532 0.221581 0.109511
1 0.427935 0.299941 0.110433
1 0.636707 0.140368 0.17254
1 0.537044 0.0969371 0.221761
1 0.411979 0.13454 0.220034
1 0.411795 0.0316041 0.170094
1 0.606605 0.214628 0.253327
2 0.608097 0.290965 0.244174
2 0.570539 0.0486171 0.107434
2 0.663786 0.250612 0.0432428
2 0.552344 0.24288 0.0902944
2 0.462442 0.270249 0.0733298
1 0.944864 0.32839 0.249463
1 0.967287 0.198788 0.0343753
1 0.745835 0.240448 0.216251
2 0.770104 0.133401 0.0626946
1 0.116597 0.650281 0.269602
2 0.176498 0.397513 0.00412961
2 0.0335923 0.585239 0.110503
2 0.122888 0.377047 0.0372903
2 0.137298 0.569656 0.203975
2 0.298839 0.591968 0.201507
2 0.253385 0.643785 0.102253
1 0.347556 0.368429 0.193234
1 0.619411 0.448877 0.274174
1 0.412889 0.426256 0.0896914
1 0.531599 0.581135 0.139027
1 0.400212 0.363966 0.172734
1 0.62906 0.608337 0.312443
2 0.406348 0.488919 0.255057
2 0.478767 0.643721 0.0257285
2 0.511594 0.354152 0.240157
2 0.639815 0.373486 0.186767
2 0.462757 0.556022 0.064686
1 0.689927 0.595825 0.0334753
1 0.958972 0.441974 0.258541
1 0.907626 0.472784 0.0730842
1 0.806058 0.411629 0.241785
2 0.708007 0.476244 0.22858
2 0.999802 0.663838 0.123973
2 0.942087 0.656103 0.122156
2 0.78185 0.558652 0.268168
1 0.0608039 0.931641 0.0895719
1 0.123698 0.993459 0.0595552
1 0.139514 0.806942 0.266164
1 0.3239 0.789975 0.10239
1 0.147137 0.930155 0.118359
1 0.259103 0.739696 0.0716757
2 0.116792 0.924568 0.207876
2 0.311592 0.923797 0.257692
2 0.219003 0.776055 0.160755
2 0.0829249 0.718946 0.317227
2 0.122968 0.717024 0.0166117
1 0.627282 0.730726 0.308552
2 0.578627 0.986265 0.152645
2 0.454682 0.834241 0.0947469
2 0.410598 0.915276 0.0417089
2 0.640793 0.802288 0.0501257
2 0.454388 0.905992 0.0126287
2 0.4629 0.957403 0.0672975
1 0.749561 0.870421 0.158222
1 0.79972 0.891119 0.0431608
1 0.839637 0.779991 0.308641
1 0.792226 0.941101 0.0778258
1 0.774065 0.709295 0.121304
2 0.772819 0.76118 0.156796
2 0.974519 0.747249 0.0161208
2 0.958279 0.786828 0.211371
2 0.92603 0.778488 0.0521566
2 0.840602 0.996799 0.207932
1 0.0489134 0.0875011 0.631455
1 0.30054 0.176091 0.560538
1 0.278344 0.121877 0.390351
2 0.0755137 0.15853 0.412328
2 0.324395 0.105641 0.50151
1 0.360222 0.250275 0.374948
1 0.434292 0.152281 0.379737
1 0.624445 0.0464971 0.476776
1 0.662171 0.106713 0.531062
2 0.603924 0.143475 0.389794
2 0.572993 0.29003 0.532792
1 0.700961 0.0550748 0.642372
1 0.731254 0.186567 0.623449
1 0.935027 0.00146559 0.63219
1 0.744052 0.28855 0.655676
2 0.803848 0.277181 0.586133
2 0.738045 0.325068 0.416607
1 0.298888 0.405519 0.554585
1 0.198228 0.623636 0.44786
1 0.193878 0.512308 0.364647
1 0.00735641 0.639228 0.512621
1 0.321674 0.370413 0.525115
2 0.270036 0.497258 0.419297
2 0.142353 0.522617 0.616772
2 0.202386 0.509584 0.572436
2 0.0694055 0.497618 0.46854
1 0.610481 0.34655 0.458486
1 0.43438 0.616563 0.573747
1 0.496662 0.401646 0.45796
2 0.545341 0.55278 0.580415
2 0.354101 0.382066 0.389765
2 0.650597 0.575927 0.603466
2 0.557649 0.39886 0.636072
1 0.862769 0.563783 0.493118
1 0.82719 0.578472 0.377188
1 0.779936 0.384448 0.421112
2 0.91137 0.398741 0.642664
2 0.748409 0.505776 0.576699
2 0.994618 0.545094 0.3906
1 0.0359187 0.686061 0.635426
1 0.22662 0.801666 0.605194
1 0.0428374 0.967908 0.630321
1 0.18675 0.707062 0.583682
2 0.222584 0.968732 0.473204
2 0.177186 0.96034 0.43155
2 0.250422 0.844504 0.577845
1 0.478601 0.843556 0.64666
1 0.410597 0.897166 0.663267
1 0.611946 0.971532 0.533554
2 0.648298 0.941908 0.649916
2 0.637641 0.834211 0.585289
2 0.518995 0.749306 0.593122
2 0.600095 0.79243 0.367446
2 0.587726 0.906429 0.359727
2 0.45813 0.795111 0.43384
1 0.874736 0.692488 0.643016
1 0.683981 0.667725 0.454551
2 0.939959 0.892389 0.389333
2 0.728207 0.967425 0.513515
1 0.243533 0.0650164 0.730496
1 0.178753 0.308962 0.731389
1 0.330347 0.135523 0.729369
1 0.0185821 0.308737 0.949147
2 0.0936648 0.224424 0.899279
2 0.261867 0.200381 0.811805
2 0.00108569 0.247203 0.747669
2 0.178149 0.154624 0.765087
1 0.403642 0.0172358 0.68214
1 0.653853 0.303199 0.869246
1 0.498381 0.293916 0.854323
1 0.503796 0.297185 0.790388
2 0.418696 0.0223567 0.748496
2 0.637485 0.206813 0.902894
2 0.596246 0.0991136 0.803009
1 0.960088 0.197774 0.989373
1 0.962769 0.25916 0.693746
1 0.939852 0.0884661 0.84993
2 0.746783 0.175758 0.964379
2 0.829726 0.197357 0.979411
2 0.874103 0.0433037 0.805446
1 0.172692 0.438553 0.761892
1 0.22137 0.56552 0.695657
2 0.280862 0.442836 0.743593
1 0.624293 0.484261 0.978005
2 0.477929 0.560475 0.905939
2 0.510226 0.367214 0.761073
2 0.568721 0.491443 0.677399
1 0.857225 0.378585 0.874021
1 0.904762 0.340566 0.886777
1 0.972669 0.650016 0.821015
1 0.944343 0.56821 0.89859
1 0.791126 0.453839 0.671581
1 0.764661 0.650915 0.936325
2 0.746744 0.529769 0.835345
2 0.962491 0.589862 0.802424
2 0.801906 0.639187 0.809751
2 0.927495 0.407978 0.89299
2 0.78251 0.642396 0.741426
2 0.820519 0.4679 0.998005
2 0.73152 0.659352 0.732448
2 0.710677 0.34478 0.710316
1 0.235537 0.672145 0.745445
1 0.0825153 0.833869 0.84194
1 0.176828 0.951621 0.90009
1 0.325935 0.994871 0.79626
1 0.261021 0.974711 0.967346
2 0.129704 0.942876 0.925219
2 0.0281902 0.792398 0.830948
2 0.110014 0.997316 0.882695
2 0.139156 0.786679 0.716466
2 0.00231437 0.89754 0.962414
2 0.0658599 0.908175 0.694187
1 0.439446 0.766388 0.688068
1 0.44308 0.842192 0.724531
1 0.386264 0.942872 0.845836
1 0.457012 0.998865 0.915719
1 0.604436 0.755502 0.730337
1 0.636933 0.939961 0.927154
1 0.555884 0.734807 0.903807
1 0.634242 0.700119 0.898135
2 0.344246 0.739982 0.877301
1 0.732905 0.931625 0.816212
1 0.763296 0.715177 0.97745
1 0.680187 0.910435 0.678038
2 0.811613 0.783767 0.772489
ITEM: TIMESTEP
1
ITEM: NUMBER OF ATOMS
200
ITEM: BOX BOUNDS pp pp pp
0.0000000000000000e+00 2.5000000000000000e+01
0.0000000000000000e+00 2.5000000000000000e+01
0.0000000000000000e+00 2.5000000000000000e+01
ITEM: ATOMS type xs ys zs
1 0.239298 0.0449296 0.201965
2 0.155074 0.303575 0.122682
2 0.262132 0.259417 0.0440937
2 0.192093 0.190084 0.0936333
2 0.103827 0.176572 0.0910008
2 0.0404943 0.221584 0.109509
1 0.427983 0.299892 0.110375
1 0.636715 0.140362 0.172502
1 0.537056 0.0969135 0.22174
1 0.411974 0.134547 0.220019
1 0.411804 0.0315689 0.170069
1 0.606606 0.214676 0.25332
2 0.608101 0.290931 0.24419
2 0.570538 0.0486415 0.107436
2 0.663787 0.250619 0.0432477
2 0.55234 0.242875 0.0903065
2 0.462405 0.270273 0.0733564
1 0.944879 0.328374 0.249455
1 0.967318 0.19879 0.0344818
1 0.745832 0.240451 0.216236
2 0.770107 0.133389 0.062711
1 0.116587 0.650284 0.269577
2 0.17652 0.397525 0.00410672
2 0.0335926 0.585212 0.1105
2 0.122856 0.377044 0.0372936
2 0.137298 0.569655 0.203996
2 0.298847 0.591965 0.201518
2 0.253393 0.643801 0.102243
1 0.347488 0.368448 0.193256
1 0.619419 0.448862 0.274149
1 0.412888 0.426284 0.0896709
1 0.531571 0.581137 0.13901
1 0.400263 0.363974 0.172732
1 0.629057 0.60833 0.312438
2 0.406355 0.488907 0.255057
2 0.478782 0.643732 0.0257251
2 0.511578 0.354152 0.240162
2 0.639821 0.373496 0.186772
2 0.46277 0.556007 0.0646996
1 0.689926 0.595814 0.0334841
1 0.958991 0.441997 0.258536
1 0.907633 0.472796 0.0730748
1 0.806039 0.411642 0.241775
2 0.708004 0.476241 0.22859
2 0.999825 0.663847 0.123982
2 0.942031 0.656091 0.12216
2 0.781851 0.558654 0.268182
1 0.0607654 0.931613 0.0895734
1 0.123693 0.993486 0.0595355
1 0.139506 0.806935 0.266154
1 0.323918 0.789978 0.102405
1 0.147147 0.930126 0.118399
1 0.259072 0.739658 0.0716894
2 0.116799 0.924574 0.207857
2 0.311592 0.923809 0.257691
2 0.219011 0.776067 0.160749
2 0.0829355 0.71894 0.317233
2 0.122981 0.717032 0.0166008
1 0.627266 0.730761 0.308562
2 0.578634 0.986261 0.152665
2 0.454681 0.834224 0.0947551
2 0.410535 0.915283 0.0417086
2 0.640806 0.802283 0.0501151
2 0.454418 0.905983 0.0125666
2 0.462909 0.957441 0.0673114
1 0.749557 0.870409 0.15824
1 0.799742 0.891079 0.0431351
1 0.839654 0.779998 0.308629
1 0.79223 0.941153 0.0778561
1 0.774087 0.709332 0.12134
2 0.772808 0.761164 0.156779
2 0.974526 0.747246 0.0160944
2 0.95827 0.786837 0.211384
2 0.925992 0.778512 0.052162
2 0.840596 0.996797 0.207928
1 0.0489196 0.0875146 0.631454
1 0.300537 0.176077 0.560524
1 0.278324 0.121859 0.390357
2 0.0755158 0.158532 0.412334
2 0.324398 0.105658 0.501516
1 0.360214 0.2503 0.374942
1 0.434303 0.152272 0.379741
1 0.624446 0.0464893 0.476736
1 0.662181 0.106733 0.531053
2 0.603919 0.143471 0.3898
2 0.572993 0.290025 0.532778
1 0.700967 0.0550622 0.642384
1 0.731264 0.186586 0.623449
1 0.935015 0.00145949 0.632192
1 0.744055 0.28859 0.655682
2 0.803836 0.277169 0.586142
2 0.738054 0.325086 0.416606
1 0.298849 0.405583 0.554623
1 0.198229 0.623626 0.447847
1 0.193889 0.512302 0.364642
1 0.0073604 0.639216 0.512603
1 0.321702 0.370379 0.525067
2 0.270028 0.49726 0.4193
2 0.142345 0.522629 0.616792
2 0.202409 0.509584 0.572431
2 0.0694072 0.497621 0.468543
1 0.610489 0.346543 0.458503
1 0.434401 0.616552 0.573744
1 0.496661 0.401656 0.457965
2 0.545321 0.552789 0.5804
2 0.354106 0.38205 0.389776
2 0.650602 0.575939 0.603457
2 0.557642 0.398842 0.636061
1 0.862769 0.563772 0.493131
1 0.827193 0.578471 0.377165
1 0.779917 0.384419 0.421118
2 0.911369 0.398739 0.642665
2 0.748425 0.505771 0.57669
2 0.994606 0.545097 0.390603
1 0.035917 0.686062 0.635441
1 0.226638 0.80173 0.605161
1 0.0428546 0.967876 0.630333
1 0.186745 0.707056 0.583674
2 0.22261 0.968741 0.473232
2 0.177166 0.960339 0.431536
2 0.250413 0.844468 0.577876
1 0.478647 0.843539 0.646605
1 0.410571 0.897187 0.663241
1 0.611957 0.971493 0.533553
2 0.648317 0.941898 0.649942
2 0.637637 0.834221 0.585299
2 0.518978 0.74932 0.593143
2 0.600108 0.792408 0.367438
2 0.587728 0.906443 0.359732
2 0.458126 0.795112 0.43385
1 0.874714 0.692483 0.643039
1 0.683972 0.667728 0.454568
2 0.939955 0.892388 0.38934
2 0.728194 0.96744 0.513524
1 0.243499 0.0650323 0.730504
1 0.178751 0.308955 0.731405
1 0.330343 0.135551 0.729386
1 0.0186161 0.308746 0.949156
2 0.0936509 0.224425 0.899274
2 0.261883 0.200374 0.81179
2 0.00106897 0.247205 0.747644
2 0.178155 0.15461 0.765068
1 0.403657 0.0172556 0.682166
1 0.653859 0.303183 0.869259
1 0.49838 0.293925 0.854367
1 0.503807 0.297227 0.790333
2 0.418676 0.022341 0.748473
2 0.637476 0.206824 0.902876
2 0.596241 0.0991042 0.802998
1 0.960075 0.197768 0.989297
1 0.96279 0.259164 0.693779
1 0.939841 0.0884547 0.849929
2 0.746778 0.175753 0.964364
2 0.829759 0.197366 0.979406
2 0.874109 0.0433088 0.805443
1 0.1727 0.438557 0.761902
1 0.221364 0.565495 0.695648
2 0.28085 0.442836 0.743586
1 0.624286 0.484251 0.977999
2 0.477937 0.560477 0.905932
2 0.510218 0.36718 0.761092
2 0.568715 0.491447 0.677408
1 0.857208 0.378632 0.874022
1 0.904803 0.340576 0.88679
1 0.972658 0.649986 0.821009
1 0.944345 0.568209 0.898589
1 0.791115 0.453849 0.671579
1 0.764685 0.650882 0.936285
2 0.746741 0.529763 0.835359
2 0.962501 0.589886 0.802436
2 0.801918 0.639192 0.809789
2 0.927473 0.407945 0.892982
2 0.782545 0.64239 0.741407
2 0.82052 0.467901 0.998009
2 0.731472 0.659378 0.732437
2 0.710688 0.34476 0.710308
1 0.235532 0.672149 0.745467
1 0.0824757 0.833847 0.841947
1 0.176727 0.95162 0.900114
1 0.325925 0.994884 0.796265
1 0.261022 0.974712 0.967364
2 0.129761 0.942871 0.925214
2 0.0282099 0.792409 0.830941
2 0.110029 0.997323 0.882682
2 0.139167 0.786672 0.716457
2 0.0023144 0.897552 0.962415
2 0.0658564 0.908191 0.694172
1 0.439447 0.76633 0.688056
1 0.443082 0.842187 0.724576
1 0.386273 0.942858 0.845863
1 0.457026 0.998868 0.915761
1 0.60446 0.755478 0.730323
1 0.636927 0.939971 0.927176
1 0.555851 0.734805 0.903827
1 0.634256 0.7001 0.898129
2 0.344249 0.739992 0.877285
1 0.732922 0.931626 0.816216
1 0.763317 0.715203 0.977463
1 0.680156 0.910456 0.677991
2 0.811609 0.783783 0.772489
